% Model:              temperature_2D_rectangle_1source_square.mph
% Version:            COMSOL 6.0.0.405
% Date:               Aug 8 2023, 15:29
% Dimension:          2
% Nodes:              3240
% Expressions:        1
% Description:        Temperature
% Length unit:        m
% X                       Y                        T (K)
0.001295333339991078      0.0013524562020806412    293.8283684940412
0                         0.001999999999999999     293.15
0                         0                        293.15
0.0019999999999993335     0                        294.1972475060176
0.001483175271409615      0.0030098836808967783    293.926193753845
0                         0.003999999999999998     293.15
0.003999999999999346      0                        295.2430156132242
0.0029934914285464414     0.001752397329506428     294.71645487901725
0.0015563805788824361     0.004985729348529343     293.96337507175684
0                         0.0059999999999999975    293.15
0.005080076136356531      0.0016047684193540208    295.8068196020849
0.005999999999999359      0                        296.28803236377587
0.0030538463360196394     0.003968718816968931     294.74626195929386
0.00447389895421463       0.0030735578773461976    295.4887672628764
0.0015964541766370901     0.006982279003475971     293.98260085922817
0                         0.007999999999999997     293.15
0.007047524583981478      0.0016165581089777256    296.8344864083133
0.007999999999999372      0                        297.3330372347754
0.0032048079641377914     0.005953492648357724     294.8222568418296
0.006130072300165681      0.0032224923783841404    296.35311211569734
0.0050034373393801615     0.004910164728717172     295.7619376041012
0.0016011433837117047     0.008985995586103123     293.9827750612389
0                         0.009999999999999995     293.15
0.00901892539412865       0.0016225668441264746    297.86457944814373
0.009999999999999384      0                        298.3787736412418
0.0031980603010886986     0.007968661145990581     294.81474851992476
0.008063933470872729      0.003252301787911239     297.3625770965453
0.004787382430395971      0.00693678769616108      295.64414392484247
0.00710080237421454       0.004902324847339213     296.85544216675584
0.006278925764160138      0.0063270160925490105    296.42243842829123
0.0016056165578142694     0.010989009932321022     293.9822800555302
0                         0.011999999999999995     293.15
0.011010448092629157      0.0016232597821751217    298.9062881747331
0.011999999999999397      0                        299.42599749058223
0.0032043928850645532     0.009977642073396421     294.81294309545825
0.010044469931398868      0.0032531133325930076    298.3971771749311
0.004793791569640808      0.008976039641543367     295.6405733699292
0.00906873789073322       0.0049071562222237665    297.881773996919
0.006399406210107301      0.008011983958670463     296.4782569288055
0.008059707479975312      0.006794817874249955     297.3474214373311
0.0016101987774876493     0.012991525576673853     293.981297620913
0                         0.013999999999999993     293.15
0.013007007064257722      0.001621303828449856     299.95249597624496
0.01399999999999941       0                        300.47548179601654
0.003212907079050501      0.011981793904568348     294.8111812577601
0.012029125716085306      0.0032444101740523646    299.4354164679093
0.0048138656429248155     0.01096501283251342      295.64259204069305
0.011075649023944138      0.004868985185069084     298.9297171765947
0.006359641948263502      0.009996150142528228     296.44752861620424
0.010194680389954556      0.006518784028851105     298.460886205089
0.007937934652646179      0.008972623127270608     297.2718510488407
0.009602586036454145      0.008380825730472073     298.14032733208074
0.0016136205169205054     0.014994556627178785     293.979189193575
0                         0.015999999999999993     293.15
0.015004019476937724      0.0016202293614590798    301.0015810200276
0.015999999999999424      0                        301.5280216026544
0.0032205348942710432     0.013987519418116668     294.8078844329907
0.014012877012496714      0.0032408024846919316    300.4753748096113
0.004818402746161072      0.012982921016166564     295.6348128000581
0.01302950443912528       0.004859680012732339     299.95162909285347
0.006400742160708883      0.011990528142751297     296.45650368548417
0.012157832236971927      0.006476297447799336     299.48526374041353
0.007949558402492375      0.011028836702548174     297.26340668061215
0.011398330090377521      0.008096770420235915     299.0766103650904
0.00955706271047584       0.010288992391599376     298.10145671224967
0.010853651929914986      0.009519838215804044     298.7808477700357
0.0016164140486659361     0.016996909939081744     293.97625720295963
0                         0.01799999999999999      293.15
0.017001447620443616      0.0016197380000190123    302.05432803457444
0.017999999999999437      0                        302.5844392682741
0.0032279537873022355     0.015991416380571572     294.8034538879774
0.016003656087824916      0.003239609325366889     301.52199857490365
0.0048314750367162975     0.014987141163696623     295.6299247510108
0.015005877580071813      0.004859123455709408     300.987787976112
0.006427160440640463      0.01398829829292918      296.4556829889253
0.014055685300075364      0.006463047867065543     300.47743104322836
0.00801190209226886       0.013004615153088431     297.2789864425613
0.01320559841978268       0.008059152785827814     300.0187335461389
0.009601957402394718      0.012089451281948091     298.1076010549206
0.012375664622552005      0.009625747550722576     299.57046274944065
0.011334616189715421      0.011206854985990274     299.01287002933265
0.0016180460235854586     0.018998522687278564     293.9722596414527
0                         0.01999999999999999      293.15
0.019000390456779356      0.0016195384281477768    303.11215560013034
0.01999999999999945       0                        303.64559019691745
0.003233301915834763      0.01799471388628871      294.79698271316823
0.01800143037864625       0.003239032028701049     302.57611551198084
0.004842413620774249      0.01698996866022041      295.62242969115226
0.01700369189502006       0.004857815832425904     302.0385392874498
0.006442330896487311      0.01598910140519196      296.44697482077373
0.0160312785598059        0.006467028910325803     301.51290318599337
0.00803388696184394       0.014995561365733226     297.2709605943778
0.015074387306211315      0.008067152682707617     300.9946739994696
0.009607816295337164      0.0140275114861972       298.08936586968474
0.014193175203602741      0.009655942492892687     300.5158110898974
0.011136119491218122      0.01315561985329926      298.88670831526514
0.013336637905448201      0.011264247542876379     300.04959817323146
0.012515021101051817      0.01256389843979809      299.606322390672
0.0016188999786780104     0.020999412781608672     293.96742735747466
0                         0.021999999999999992     293.15
0.0016192850084251222     0.022999814577445644     293.9619517471829
0                         0.02399999999999999      293.15
0.02100009776539756       0.0016194841326278994    304.17554532407036
0.02199999999999946       0                        304.71236899660033
0.00323628779103249       0.0199974142795965       294.78839107214844
0.020000464761581235      0.0032389185546334055    303.63556738359836
0.004850268687010374      0.018993247112649846     295.61191990344463
0.0190018828858989        0.004857732316908305     303.093659320104
0.0064562755104011485     0.017990305081430753     296.43566008037743
0.018011922637004994      0.006472810611101571     302.5546186947136
0.008051775352410842      0.01699284443890114      297.2582469102954
0.017047687125181968      0.008077562526060728     302.0282091020042
0.00963006054506105       0.016012295113734157     298.07605476970866
0.016099357192910002      0.009682728225064881     301.5097120723023
0.011176733726689104      0.01506027101134986      298.88141152620454
0.015194902619885277      0.011300785423916796     301.0140094136214
0.012651749665123283      0.01414209239946176      299.65339632800766
0.014263572656805308      0.013070539939169875     300.50244409895913
0.022999999999999465      0.0016194675050769023    305.2451122652749
0.023999999999999473      0                        305.78571614880883
0.0016194337173275973     0.024999965817829168     293.9559842035788
0                         0.025999999999999992     293.15
0.0016194672546606256     0.026999999497638136     293.94961966543445
0                         0.027999999999999994     293.15
0.0032378279729280007     0.021998992656136127     294.77822073625083
0.0032385766247404486     0.02399968725179759      294.7668729095119
0.021999999999999464      0.0032389350101538045    304.70084394660347
0.004854609693506785      0.02099664164639584      295.59828568210037
0.020999999999999464      0.0048584025152307074    304.1537645205737
0.006467036646108668      0.01999263473363522      296.4208475622691
0.020004197840271243      0.006475332635514949     303.60694712148785
0.008069983067423535      0.01899141335096888      297.2432704882853
0.019017195771275808      0.008087405375474832     303.0636168208789
0.009661682936146334      0.017995629500206216     298.0645975788416
0.018057280193961574      0.009685858062841994     302.5342003391194
0.011237164128289684      0.01701090633000511      298.88216952589414
0.01710961871472462       0.01127713363984321      302.01137926447956
0.012797492235105326      0.01601320088540168      299.69688526158507
0.016168157911208247      0.012853632089117642     301.49271766289615
0.014334543389311045      0.015092388113171271     300.5028897955763
0.01565260866375254       0.014276012745169033     301.1982063821368
0.024999999999999478      0.0016194675050769025    306.32176927167626
0.025999999999999485      0                        306.8666253343039
0.02399999999999947       0.003238935010153805     305.7728611487173
0.026999999999999493      0.0016194675050769023    307.40648464145175
0.0279999999999995        0                        307.95615154065
0.0016194675050769018     0.028999999999999984     293.94293333372565
0                         0.029999999999999995     293.15
0.0016194675050769023     0.030999999999999986     293.93597638996124
0                         0.031999999999999994     293.15
0.003238863813620209      0.02599993921710433      294.7545817798757
0.0032389323319686283     0.02799999708535401      294.7415375170704
0.004856761672755317      0.022998738354724282     295.5823231247255
0.004857812135462634      0.024999599134316135     295.56469041239365
0.022999999999999465      0.0048584025152307074    305.2208079090033
0.006472789439869057      0.02199618495311803      296.40175608458225
0.02200083778174771       0.006477185657460383     304.66693252181125
0.008083389542851357      0.02099237281926472      297.2235569926965
0.021005518930401066      0.008092576194185082     304.1136953564184
0.009684192103257064      0.019991054063026873     298.0454937177446
0.020018679786039037      0.009700607502655927     303.56438117411926
0.011278725264818608      0.01899255809570269      298.8693502806372
0.01905325387571768       0.011288673969259444     303.02671101482514
0.012865342529184847      0.01799891639870057      299.6942826988127
0.01808476049466494       0.012851124068858497     302.488628724364
0.014450261645407837      0.017022838498569916     300.52322782172445
0.017214975898792867      0.014383721983639255     302.00361491672487
0.016191575469671985      0.01602964421125536      301.4382933274249
0.025999999999999482      0.003238935010153805     306.8523547123678
0.024999999999999478      0.0048584025152307074    306.29472995218475
0.02899999999999951       0.0016194675050769023    308.50034409412643
0.029999999999999513      0                        309.05542010008173
0.027999999999999498      0.0032389350101538045    307.9403674157542
0.030999999999999524      0.0016194675050769023    309.60450820031343
0.03199999999999953       0                        310.165636842837
0.0016194675050769025     0.03299999999999999      293.92878434649054
0                         0.033999999999999996     293.15
0.0016194675050769023     0.03499999999999999      293.92139286682067
0                         0.036                    293.15
0.003238935010153804      0.02999999999999998      294.72788530309936
0.0032389350101538045     0.03199999999999999      294.71372644764506
0.004858244170579157      0.026999902959795655     295.54573163832043
0.004858380927903958      0.028999987160714752     295.5257114730791
0.006475488604652299      0.02399855915720557      296.379556669731
0.006476836825226898      0.025999479130060357     296.3552589922178
0.024000258692376337      0.0064775764511927035    305.7346765887603
0.008090368563501694      0.022995611881933855     297.1984768946185
0.023001381453422544      0.00809571334149615      305.1734072772142
0.00969915820277124       0.021991058329386706     298.01985746564634
0.02200635459432386       0.009709165987146395     304.6134061798077
0.011298297001212786      0.020988457059159523     298.84189609912556
0.02101673681342789       0.011315209463425794     304.0563233283298
0.012891142205259101      0.01998779392532186      299.66631928278906
0.02003807919472874       0.01289937330307451      303.50611522093413
0.014469712944068428      0.01899751079286121      300.4889379748624
0.019102634636351527      0.014461481004178201     302.9801650236149
0.01603970642119886       0.018006922997552258     301.31290323587376
0.0181912975190619        0.01606872815628077      302.46707701690906
0.017442251944996975      0.017466450088632693     302.0447332436156
0.02700001677823736       0.00485836703679314      307.3765376903521
0.026000135896246987      0.006477580157091739     306.8098910455096
0.029999999999999513      0.0032389350101538045    309.038010859997
0.029000007097045654      0.004858380670616944     308.46726656718005
0.03299999999999954       0.0016194675050769018    310.7202230900785
0.03399999999999954       0                        311.28809958502694
0.03199999999999953       0.0032389350101538037    310.14647532488556
0.034999999999999545      0.0016194675050769012    311.8488326048251
0.03599999999999955       0                        312.4242112169662
0.0016194675050769023     0.037                    293.91383763532207
0                         0.038000000000000006     293.15
0.0016194675050769016     0.03900000000000001      293.9061541230262
0                         0.04000000000000001      293.15
0.0032389350101538045     0.033999999999999996     294.69913340312263
0.0032389350101538045     0.036                    294.68417760884194
0.0048584008765238315     0.03099999917199522      295.50482347920155
0.004858402515230707      0.03299999999999998      295.48322226692284
0.006477488780391699      0.027999814313640476     296.329325324029
0.006477779150151501      0.029999952359811583     296.3020610542695
0.008093732852055972      0.02499806238838039      297.16969107589347
0.008095532378516556      0.026999130828415523     297.1384264967342
0.02500049400072757       0.008096329778179489     306.24144042610504
0.009707179551837745      0.02399414106530154      297.98825397188176
0.024001415490239326      0.009713999484450979     305.6722540093728
0.011314477480067807      0.02298840199943041      298.80967807705787
0.023005410927575812      0.011326925853290905     305.10457933625815
0.012912831897249942      0.02198346885080986      299.6325882515495
0.022009000361089655      0.012939064171270968     304.53724518739
0.014509002985501026      0.020971803272192967     300.46065279640817
0.021036346154434053      0.014538328922564923     303.98391205697845
0.016060443328650715      0.01999990503862056      301.27119302498926
0.020099828322013517      0.01615207799132447      303.45061220835606
0.01752371495784779       0.01906643232535464      302.04167549865866
0.019096518842544534      0.017918993658654656     302.88043608110974
0.028000034779025563      0.006477697556516653     307.893343750462
0.027000079257690643      0.008096677079035702     307.31724499131593
0.03100000098390203       0.004858398585303262     309.56806492052925
0.029999998119817437      0.006477791887614289     308.9861317329894
0.03399999999999954       0.0032389350101538037    311.26704089899636
0.03299999999999954       0.004858402515230706     310.68014719449064
0.036999999999999554      0.0016194675050769014    312.9917921812337
0.03799999999999956       0                        313.5754947168202
0.035999999999999546      0.003238935010153804     312.40109013077375
0.03899999999999957       0.0016194675050769012    314.15068482110695
0.03999999999999958       0                        314.7436104896469
0.0016194675050769014     0.041000000000000016     293.8983773731956
0                         0.04200000000000001      293.15
0.0016194675050769014     0.043000000000000024     293.89054180792664
0                         0.04400000000000001      293.15
0.0032389350101538045     0.038000000000000006     294.66893029857584
0.0032389350101538037     0.04000000000000003      294.6534620514199
0.004858402515230706      0.03499999999999999      295.46102315093907
0.004858402515230706      0.037000000000000005     295.4383342019089
0.006477859216575635      0.03199999413789139      296.27368397170176
0.0064778700203076064     0.033999999999999996     296.24440646085003
0.00809656417895087       0.028999608133236945     297.10525223068663
0.008097110366559997      0.030999873803130167     297.070484983782
0.009711556844227734      0.025996888405450076     297.95264060958385
0.009714031893467557      0.027998438332141176     297.9141360820593
0.02600031308164757       0.00971491337320853      306.74001419061796
0.011324027474115159      0.024991874707841862     298.77133838527493
0.025000596600496076      0.01133229605787095      306.1624610441323
0.012929951214892823      0.02398586377937056      299.5931115054863
0.024003690102827505      0.012945862357023705     305.586954396449
0.014529853276712171      0.02297989473547947      300.41830493312676
0.023008858638164473      0.014558135111083297     305.0137713070533
0.016124680735830833      0.02197488841683334      301.24749122954614
0.022062276612230532      0.016154721023369113     304.468057587698
0.01769584192745733       0.020981872426928935     302.07104919911103
0.021155604547529915      0.017745604192535045     303.945269605007
0.019223680025781092      0.020030572637096383     302.87788833174255
0.020566438280833228      0.019185656414599676     303.5926886019234
0.028999932005147413      0.008096993317347227     308.4017200080591
0.02799985786991094       0.009715735883551563     307.8158738449649
0.031999995411248164      0.006477844428723679     310.0893840815866
0.030999928683425867      0.00809719124174584      309.49587875664656
0.03499999999999954       0.004858402515230707     311.80481721310974
0.03399999999999954       0.006477870020307607     311.20431433296335
0.03799999999999956       0.003238935010153804     313.55012250411073
0.03699999999999955       0.004858402515230707     312.94348651253944
0.040999999999999585      0.0016194675050769016    315.3272395841227
0.041999999999999586      0                        315.93037652865405
0.03999999999999958       0.003238935010153804     314.71577111005075
0.042999999999999594      0.0016194675050769014    316.5233531476966
0.0439999999999996        0                        317.13779202099084
0.0016194675050769014     0.04500000000000003      293.882681056526
0                         0.04600000000000001      293.15
0.0032389350101537993     0.042000000000000065     294.63784238380845
0.0032389350101537824     0.04400000000000021      294.62213938464635
0.004858402515230704      0.039000000000000055     295.41526202805613
0.0048584025152306936     0.04100000000000021      295.3919119150582
0.0064778700203076064     0.036000000000000025     296.2144002852015
0.006477870020307602      0.03800000000000011      296.18381370657784
0.008097304847144377      0.032999980932128865     297.03437362984135
0.008097337525384508      0.03500000000000004      296.9971921649422
0.00971556297171181       0.029999278371845173     297.87343273455616
0.009716411940455588      0.03199975985763359      297.8308776285971
0.011329493974833633      0.026995298842430165     298.72851106498143
0.011332625063142724      0.028997582276629616     298.68236983397327
0.02699972757994871       0.011333862649960093     307.2295119860871
0.012941390038128728      0.02598990260463566      299.5477550723784
0.02599936407889873       0.01295115289734825      306.64342121424664
0.014548966664611964      0.02498422544771483      300.3715925301689
0.02500253486135034       0.014564869290221494     306.06049331298976
0.016146511801203148      0.023981622109799833     301.1972210920599
0.024005788272585447      0.016175077664716753     305.47963032759486
0.01774457697708752       0.02298179639727352      302.0300499808491
0.023067777996650406      0.017759405421271947     304.9327292712588
0.019336439819451618      0.02199512148474313      302.8665233916409
0.022191937345986956      0.019349211894535662     304.4202449906307
0.021103213305988876      0.020989759873127744     303.8001263446707
0.029999774139901906      0.009716299196763093     308.9007020417775
0.02899948870501543       0.011335107402711783     308.3048373885035
0.03299995899482131       0.00809728472847548      310.60081198190323
0.03199984022518897       0.009716598384742939     309.99545544327583
0.03599999946933951       0.00647786953506694      312.33223867166333
0.034999982479390714      0.00809732167179913      311.7177302605915
0.03899999999999956       0.004858402515230707     314.0976879658793
0.0379999997059994        0.006477869762524923     313.474590498351
0.04199999999999959       0.003238935010153805     315.8998219733591
0.04099999999999958       0.004858402515230707     315.26909220351286
0.04499999999999961       0.0016194675050769014    317.74111511759344
0.04599999999999962       0                        318.3680651847771
0.043999999999999595      0.0032389350101538054    317.1042366049194
0.0016194675050769016     0.047000000000000035     293.87482780590904
0                         0.048000000000000015     293.15
0.0016194675050769016     0.04900000000000004      293.867013672832
0                         0.05000000000000002      293.15
0.0032389350101537043     0.04600000000000091      294.6064193945087
0.004858402515230645      0.0430000000000009       295.3683872459419
0.004858402515230435      0.045000000000003974     295.3447889871336
0.006477870020307588      0.040000000000000493     296.15278847514924
0.006477870020307524      0.042000000000002126     296.1214641250535
0.0080973375253845        0.03700000000000019      296.95918244597357
0.008097337525384463      0.039000000000000846     296.92053870755876
0.009716742702980683      0.03399996092189991      297.7867742318115
0.009716805030461387      0.03600000000000027      297.74146311555756
0.011334622319863062      0.030998916917729494     298.6337746738763
0.011335740336997932      0.03299964437072569      298.58311081706285
0.012947875986058052      0.027993927862992735     299.49725932415737
0.012951498061075229      0.0299968733671049       299.4430188193719
0.027998800042562454      0.012953794623296017     307.7090621817181
0.014558997731828916      0.026988975453704156     300.3171172334341
0.026998907574400405      0.014571034308051385     307.11492304542315
0.016164172160714287      0.025985343293457256     301.14113458996263
0.026001016511010597      0.016186568071886873     306.52384088518215
0.01775891666793281       0.024986285479304145     301.96712594423576
0.025007687802661646      0.017798795107687296     305.93790561002737
0.019342862456592235      0.023992591871443637     302.79499238009316
0.024084605385904963      0.019389411015199892     305.3923502339034
0.02090846422380265       0.022994135702588563     303.6214674058302
0.023174528817008953      0.021025737613761468     304.854644286088
0.02236633108124532       0.022415540689614724     304.3828798966576
0.030999613651025975      0.011335793624557994     309.389306069607
0.029999192978422948      0.012954976621658993     308.7833050694143
0.033999917373492575      0.00971672951496613      311.10120305762626
0.03299981267751576       0.011336144297867994     310.4838187306191
0.03699999343786911       0.008097332760989012     312.8479582801801
0.0359999647386804        0.009716779847253667     312.2191483458376
0.0399999998893939        0.006477869927072458     314.6329227104848
0.03899999779254877       0.008097336123808809     313.99293518243206
0.042999999999999594      0.0048584025152307074    316.4595273390044
0.041999999965215605      0.006477869992021868     315.80892815376745
0.046999999999999625      0.0016194675050769025    318.9828379560822
0.047999999999999626      0                        319.6236463416502
0.04599999999999961       0.0032389350101538054    318.3311784966981
0.044999999999999596      0.004858402515230709     317.67100195841437
0.04899999999999965       0.0016194675050769036    320.2510926375722
0.04999999999999965       0                        320.9072675204576
0.0016194675050769016     0.05100000000000004      293.8592690973892
0                         0.05200000000000002      293.15
0.0016194675050769016     0.05300000000000004      293.85162325688333
0                         0.05400000000000002      293.15
0.0032389350101533405     0.048000000000004074     294.5907467289255
0.0032389350101516678     0.05000000000001822      294.5751834449545
0.004858402515229512      0.047000000000017396     295.3212152412896
0.006477870020307249      0.04400000000000907      296.0899772445735
0.006477870020306101      0.04600000000003817      296.0584608363151
0.008097337525384307      0.041000000000003554     296.8814375327515
0.008097337525383637      0.04300000000001463      296.84205217035543
0.009716805030461314      0.03800000000000112      297.69525852201656
0.009716805030460995      0.04000000000000455      297.64840382348666
0.01133618477158751       0.03499994074862088      298.530740720191
0.011336272535538199      0.03700000000000107      298.47707381732266
0.012953837467032358      0.03199864479150948      299.38613072663924
0.01295512610567087       0.03399955950763112      299.32701221927977
0.014566476676779296      0.028993088364531624     300.2585341535921
0.014570607795648345      0.030996400278286138     300.195831204115
0.02899857617551916       0.01457410301941122      308.17836349549225
0.01617651713935644       0.02798895577465411      301.0789913325521
0.027999611843929358      0.016192171944828075     307.5763353478639
0.017777872198647276      0.02698768014343862      301.9026194875693
0.027003024586792827      0.017811135119854524     306.9782411820923
0.019367230046996562      0.025991960512507264     302.7278243909064
0.026025208773416547      0.01942923472041863      306.39329846417974
0.020938362689036236      0.025007164488456166     303.5513850588881
0.02508704722596437       0.02107829936451001      305.83101930889705
0.022468285377229478      0.024066069542758743     304.3602609570803
0.0240911262927336        0.022889551135857673     305.2355265074554
0.03199960716788964       0.012955558038794111     309.86660579178937
0.03099927605519794       0.014575036192328533     309.2505175599265
0.03499990133014746       0.011336214169096387     311.5894056325764
0.03399979690529601       0.012955651429457822     310.95986764578356
0.03799998678701493       0.009716797112419982     313.35061383130363
0.036999957136972274      0.011336250174513505     312.70731026997265
0.040999999318998635      0.008097337127582293     315.15422145376414
0.039999995509237087      0.009716802652962838     314.4970326257571
0.04399999999017292       0.0064778700125725       317.00445884676856
0.04299999980398514       0.008097337416905331     316.3335150938849
0.047999999999999626      0.0032389350101538076    319.58304446688084
0.046999999999999605      0.004858402515230711     318.9057320820348
0.04599999999741831       0.006477870018334526     318.22154862436713
0.05099999999999966       0.0016194675050769033    321.54875146828437
0.05199999999999967       0                        322.2219902829147
0.04999999999999965       0.003238935010153808     320.8625020152919
0.05299999999999967       0.0016194675050769027    322.87903995105506
0.05399999999999969       0                        323.5712640058514
0.0016194675050769016     0.05500000000000004      293.8441039989147
0                         0.05600000000000002      293.15
0.0016194675050769016     0.057000000000000044     293.83673779233135
0                         0.058000000000000024     293.15
0.003238935010144134      0.05200000000007995      294.55978914953425
0.0032389350101109937     0.05400000000034228      294.5446208475301
0.0048584025152255085     0.04900000000007492      295.29776086622127
0.004858402515208515      0.051000000000315314     295.2745171580784
0.0064778700203014        0.048000000000157396     296.02704376715036
0.00809733752538083       0.04500000000005914      296.8025516791319
0.00809733752536936       0.047000000000233716     296.7631001864458
0.009716805030459673      0.04200000000001808      297.6011100299939
0.009716805030454327      0.04400000000007016      297.55358347578994
0.011336272535537843      0.03900000000000416      298.4224890423167
0.011336272535536424      0.041000000000015926     298.367276301347
0.012955633757476513      0.03599992434456498      299.2660935821959